           9
  -694.881888961486      (eV)  timestep          50
 Au  -1.18674513000000       -1.05505758000000        2.04069927000000     
 Au  0.416149670000000       0.522076210000000       -1.65729131000000     
 Au  -1.40732975000000        2.39091154000000       -1.84808125000000     
 Au   1.97959074000000       -1.42773379000000      -0.852527870000000     
 Au -0.613691040000000       -1.61562793000000      -0.462961400000000     
 Au  -1.60530647000000       0.760789560000000       0.190688370000000     
 Au  0.381592870000000        2.56926067000000       8.505543000000000E-002
 Au  0.958527230000000       0.213205790000000        1.02158820000000     
 Au   1.07721185000000       -2.35782451000000        1.48283059000000     
           9
  -694.881877449316      (eV)  timestep         100
 Au  -1.19306909000000       -1.03169454000000        2.04865126000000     
 Au  0.418904200000000       0.506006600000000       -1.66115534000000     
 Au  -1.39590485000000        2.38143519000000       -1.86949834000000     
 Au   1.97443459000000       -1.44277420000000      -0.838226110000000     
 Au -0.619314250000000       -1.61781302000000      -0.449252950000000     
 Au  -1.60258529000000       0.768430810000000       0.181703650000000     
 Au  0.393467510000000        2.56790611000000       6.233919000000000E-002
 Au  0.957889190000000       0.217969580000000        1.02099010000000     
 Au   1.06617802000000       -2.34946649000000        1.50444855000000     
           9
  -694.881883938447      (eV)  timestep         150
 Au  -1.20025313000000       -1.00987577000000        2.05506092000000     
 Au  0.423695680000000       0.490083620000000       -1.66485857000000     
 Au  -1.38324896000000        2.37063728000000       -1.89240839000000     
 Au   1.97059186000000       -1.45718439000000      -0.822260560000000     
 Au -0.624749740000000       -1.61936843000000      -0.436631260000000     
 Au  -1.59984434000000       0.775899050000000       0.172325230000000     
 Au  0.401919930000000        2.56716328000000       4.215771000000000E-002
 Au  0.957269490000000       0.223110290000000        1.02034871000000     
 Au   1.05461923000000       -2.34046494000000        1.52626625000000     
           9
  -694.881886628209      (eV)  timestep         200
 Au  -1.20781759000000      -0.985540010000000        2.06266196000000     
 Au  0.428938320000000       0.472810890000000       -1.66865057000000     
 Au  -1.36980894000000        2.35853949000000       -1.91696603000000     
 Au   1.96551925000000       -1.47338642000000      -0.805568710000000     
 Au -0.631138580000000       -1.62052609000000      -0.422547190000000     
 Au  -1.59672139000000       0.784498260000000       0.162457830000000     
 Au  0.412421980000000        2.56584131000000       1.928166000000000E-002
 Au  0.956542260000000       0.228464640000000        1.01971263000000     
 Au   1.04206473000000       -2.33070209000000        1.54961842000000     
           9
  -694.881881656716      (eV)  timestep         250
 Au  -1.21959985000000      -0.959157940000000        2.06799336000000     
 Au  0.437544070000000       0.453482450000000       -1.67194630000000     
 Au  -1.35295773000000        2.34306923000000       -1.94723672000000     
 Au   1.96351197000000       -1.48863220000000      -0.781453070000000     
 Au -0.635863690000000       -1.62260380000000      -0.408485570000000     
 Au  -1.59386618000000       0.792088950000000       0.147723520000000     
 Au  0.421966660000000        2.56447098000000      -5.696010000000000E-003
 Au  0.953392670000000       0.235675070000000        1.02110523000000     
 Au   1.02587206000000       -2.31839271000000        1.57799554000000     
           9
  -694.881890731553      (eV)  timestep         300
 Au  -1.22942912000000      -0.928525410000000        2.07637587000000     
 Au  0.443499360000000       0.432581430000000       -1.67562406000000     
 Au  -1.33466733000000        2.33029652000000       -1.97489326000000     
 Au   1.95432970000000       -1.51122373000000      -0.762748330000000     
 Au -0.645970010000000       -1.62197978000000      -0.391573420000000     
 Au  -1.58922901000000       0.804739260000000       0.137107320000000     
 Au  0.439271320000000        2.56130687000000      -3.343324000000000E-002
 Au  0.953338100000000       0.240423990000000        1.02002847000000     
 Au   1.00885699000000       -2.30761912000000        1.60476060000000     
           9
  -694.881887063308      (eV)  timestep         350
 Au  -1.24039490000000      -0.897647710000000        2.08374256000000     
 Au  0.448028140000000       0.412703840000000       -1.67960726000000     
 Au  -1.30923237000000        2.32707153000000       -1.99555861000000     
 Au   1.93850793000000       -1.53779319000000      -0.748331530000000     
 Au -0.663121940000000       -1.61834029000000      -0.377482270000000     
 Au  -1.58037345000000       0.822925680000000       0.129870920000000     
 Au  0.467357710000000        2.55580971000000      -5.633007000000000E-002
 Au  0.955380010000000       0.239255850000000        1.01858168000000     
 Au  0.983848860000000       -2.30398544000000        1.62511455000000     
           9
  -694.881885472605      (eV)  timestep         400
 Au  -1.26048342000000      -0.866486030000000        2.08413378000000     
 Au  0.462924250000000       0.395459980000000       -1.67945673000000     
 Au  -1.27053657000000        2.32731814000000       -2.01937073000000     
 Au   1.92209196000000       -1.56916817000000      -0.728072400000000     
 Au -0.681916660000000       -1.61238969000000      -0.369588540000000     
 Au  -1.57073467000000       0.843233760000000       0.115990780000000     
 Au  0.497313940000000        2.55031128000000      -7.135701999999999E-002
 Au  0.954278700000000       0.235292920000000        1.02094013000000     
 Au  0.947062440000000       -2.30357218000000        1.64678071000000     
           9
  -694.881866785920      (eV)  timestep         450
 Au  -1.28527514000000      -0.838669210000000        2.07983771000000     
 Au  0.479041550000000       0.382034610000000       -1.67783824000000     
 Au  -1.22529853000000        2.33617764000000       -2.03839136000000     
 Au   1.90637586000000       -1.59775135000000      -0.709148870000000     
 Au -0.699724290000000       -1.60566337000000      -0.365837350000000     
 Au  -1.56126852000000       0.863195230000000       9.943782000000000E-002
 Au  0.529254200000000        2.54300289000000      -7.723882000000000E-002
 Au  0.951154950000000       0.226379110000000        1.02525665000000     
 Au  0.905739870000000       -2.30870550000000        1.66392250000000     
